LAMMPS (7 Aug 2019)
  using 1 OpenMP thread(s) per MPI task
Reading data file ...
  orthogonal box = (-27.5 -38.5 -36.3646) to (27.5 38.5 36.3615)
  2 by 2 by 2 MPI processor grid
  reading atoms ...
  32000 atoms
  reading velocities ...
  32000 velocities
  scanning bonds ...
  4 = max bonds/atom
  scanning angles ...
  8 = max angles/atom
  scanning dihedrals ...
  18 = max dihedrals/atom
  scanning impropers ...
  2 = max impropers/atom
  reading bonds ...
  27723 bonds
  reading angles ...
  40467 angles
  reading dihedrals ...
  56829 dihedrals
  reading impropers ...
  1034 impropers
Finding 1-2 1-3 1-4 neighbors ...
  special bond factors lj:   0          0          0         
  special bond factors coul: 0          0          0         
  4 = max # of 1-2 neighbors
  12 = max # of 1-3 neighbors
  24 = max # of 1-4 neighbors
  26 = max # of special neighbors
  special bonds CPU = 0.00666809 secs
  read_data CPU = 0.328413 secs
Replicating atoms ...
  orthogonal box = (-27.5 -38.5 -36.3646) to (27.5 38.5 36.3615)
  2 by 2 by 2 MPI processor grid
  32000 atoms
  27723 bonds
  40467 angles
  56829 dihedrals
  1034 impropers
Finding 1-2 1-3 1-4 neighbors ...
  special bond factors lj:   0          0          0         
  special bond factors coul: 0          0          0         
  4 = max # of 1-2 neighbors
  12 = max # of 1-3 neighbors
  24 = max # of 1-4 neighbors
  26 = max # of special neighbors
  special bonds CPU = 0.00590205 secs
  replicate CPU = 0.024945 secs
Finding SHAKE clusters ...
  1617 = # of size 2 clusters
  3633 = # of size 3 clusters
  747 = # of size 4 clusters
  4233 = # of frozen angles
  find clusters CPU = 0.00220895 secs
PPPM initialization ...
  using 12-bit tables for long-range coulomb (../kspace.cpp:323)
  G vector (1/distance) = 0.248835
  grid = 25 32 32
  stencil order = 5
  estimated absolute RMS force accuracy = 0.0355478
  estimated relative force accuracy = 0.000107051
  using double precision MKL FFT
  3d grid and FFT values/proc = 7938 3328
Neighbor list info ...
  update every 1 steps, delay 5 steps, check yes
  max neighbors/atom: 2000, page size: 100000
  master list distance cutoff = 12
  ghost atom cutoff = 12
  binsize = 6, bins = 10 13 13
  1 neighbor lists, perpetual/occasional/extra = 1 0 0
  (1) pair lj/charmm/coul/long, perpetual
      attributes: half, newton on
      pair build: half/bin/newton
      stencil: half/bin/3d/newton
      bin: standard
Setting up Verlet run ...
  Unit style    : real
  Current step  : 0
  Time step     : 2
Per MPI rank memory allocation (min/avg/max) = 42.34 | 42.63 | 42.74 Mbytes
Step Temp E_pair E_mol TotEng Press Volume 
       0    299.03967   -65685.704    18884.666   -25356.206   -149.33011    307995.03 
      50    299.82293       -65606    18774.968   -25330.032    237.65707    308031.68 
     100    301.09061   -65648.112    18765.473    -25290.73     6.740622    308134.23 
     150    300.22264   -65665.169    18877.427   -25258.078    251.47411    308515.24 
     200      300.804   -65666.948    19016.743    -25078.85    20.666107    308997.56 
     250    300.45809   -65590.959    19100.059   -24944.352   -169.95719     309388.1 
     300    299.80103   -65411.765    18912.943   -24999.392   -370.78549     309663.8 
     350    299.31939   -65588.728    18995.879   -25127.958   -337.22586     309801.8 
     400    298.74509    -65536.27    18911.513   -25201.052    249.59086    309816.57 
     450    299.20346   -65538.947    18933.623   -25148.747    181.88744    309791.84 
     500    301.58028   -65584.681    18998.323   -24959.335   -322.68694    309753.01 
     550    301.68915   -65389.537    18868.354   -24886.352     438.3972    309669.39 
     600    302.00344   -65579.139    18946.119    -24975.65    36.731669    309829.49 
     650    298.17522   -65355.069    18742.043   -25230.186   -160.98008    310044.78 
     700    299.86864   -65596.513    18813.574   -25278.661    270.28339    310220.89 
     750    298.91573   -65573.161    18980.068   -25157.151    497.35243    310163.28 
     800    299.55467   -65668.863    19125.376   -25061.723   -238.92475    310063.53 
     850    300.24904   -65572.384    19052.565   -24988.262    100.92913    309891.77 
     900    298.71593   -65443.655    18996.911   -25025.129    315.68488    309706.85 
     950    299.45002   -65611.891    19010.463   -25127.171    253.39909    309621.01 
    1000    299.57291   -65781.602    19096.827   -25201.704    -135.8866    309556.51 
Loop time of 64.757 on 8 procs for 1000 steps with 32000 atoms

Performance: 2.668 ns/day, 8.994 hours/ns, 15.442 timesteps/s
72.9% CPU use with 8 MPI tasks x 1 OpenMP threads

MPI task timing breakdown:
Section |  min time  |  avg time  |  max time  |%varavg| %total
---------------------------------------------------------------
Pair    | 32.26      | 34.153     | 35.735     |  21.5 | 52.74
Bond    | 3.3187     | 3.3944     | 3.4827     |   3.1 |  5.24
Kspace  | 6.7193     | 8.3653     | 10.17      |  44.0 | 12.92
Neigh   | 8.562      | 8.9465     | 9.0234     |   4.9 | 13.82
Comm    | 1.46       | 1.5124     | 1.5787     |   3.6 |  2.34
Output  | 1.7907     | 1.7996     | 1.8478     |   1.4 |  2.78
Modify  | 4.2847     | 4.3938     | 4.8187     |   7.8 |  6.79
Other   |            | 2.192      |            |       |  3.38

Nlocal:    4000 ave 4076 max 3948 min
Histogram: 2 1 1 0 0 2 1 0 0 1
Nghost:    16042.6 ave 16099 max 15999 min
Histogram: 2 1 0 2 0 0 0 0 2 1
Neighs:    1.49655e+06 ave 1.53778e+06 max 1.46083e+06 min
Histogram: 2 0 1 0 1 2 0 0 1 1

Total # of neighbors = 11972434
Ave neighs/atom = 374.139
Ave special neighs/atom = 7.43187
Neighbor list builds = 110
Dangerous builds = 0
Total wall time: 0:01:10
LAMMPS (7 Aug 2019)
  using 1 OpenMP thread(s) per MPI task
Reading data file ...
  orthogonal box = (-27.5 -38.5 -36.3646) to (27.5 38.5 36.3615)
  2 by 2 by 2 MPI processor grid
  reading atoms ...
  32000 atoms
  reading velocities ...
  32000 velocities
  scanning bonds ...
  4 = max bonds/atom
  scanning angles ...
  8 = max angles/atom
  scanning dihedrals ...
  18 = max dihedrals/atom
  scanning impropers ...
  2 = max impropers/atom
  reading bonds ...
  27723 bonds
  reading angles ...
  40467 angles
  reading dihedrals ...
  56829 dihedrals
  reading impropers ...
  1034 impropers
Finding 1-2 1-3 1-4 neighbors ...
  special bond factors lj:   0          0          0         
  special bond factors coul: 0          0          0         
  4 = max # of 1-2 neighbors
  12 = max # of 1-3 neighbors
  24 = max # of 1-4 neighbors
  26 = max # of special neighbors
  special bonds CPU = 0.00787997 secs
  read_data CPU = 0.610312 secs
Replicating atoms ...
  orthogonal box = (-27.5 -38.5 -36.3646) to (27.5 38.5 36.3615)
  2 by 2 by 2 MPI processor grid
  32000 atoms
  27723 bonds
  40467 angles
  56829 dihedrals
  1034 impropers
Finding 1-2 1-3 1-4 neighbors ...
  special bond factors lj:   0          0          0         
  special bond factors coul: 0          0          0         
  4 = max # of 1-2 neighbors
  12 = max # of 1-3 neighbors
  24 = max # of 1-4 neighbors
  26 = max # of special neighbors
  special bonds CPU = 0.0057478 secs
  replicate CPU = 0.0235281 secs
Finding SHAKE clusters ...
  1617 = # of size 2 clusters
  3633 = # of size 3 clusters
  747 = # of size 4 clusters
  4233 = # of frozen angles
  find clusters CPU = 0.00207496 secs
PPPM initialization ...
  using 12-bit tables for long-range coulomb (../kspace.cpp:323)
  G vector (1/distance) = 0.248835
  grid = 25 32 32
  stencil order = 5
  estimated absolute RMS force accuracy = 0.0355478
  estimated relative force accuracy = 0.000107051
  using double precision MKL FFT
  3d grid and FFT values/proc = 7938 3328
Neighbor list info ...
  update every 1 steps, delay 5 steps, check yes
  max neighbors/atom: 2000, page size: 100000
  master list distance cutoff = 12
  ghost atom cutoff = 12
  binsize = 6, bins = 10 13 13
  1 neighbor lists, perpetual/occasional/extra = 1 0 0
  (1) pair lj/charmm/coul/long, perpetual
      attributes: half, newton on
      pair build: half/bin/newton
      stencil: half/bin/3d/newton
      bin: standard
Setting up Verlet run ...
  Unit style    : real
  Current step  : 0
  Time step     : 2
Per MPI rank memory allocation (min/avg/max) = 42.34 | 42.63 | 42.74 Mbytes
Step Temp E_pair E_mol TotEng Press Volume 
       0    299.03967   -65685.704    18884.666   -25356.206   -149.33011    307995.03 
      50    299.82293       -65606    18774.968   -25330.032    237.65707    308031.68 
     100    301.09061   -65648.112    18765.473    -25290.73     6.740622    308134.23 
     150    300.22264   -65665.169    18877.427   -25258.078    251.47411    308515.24 
     200      300.804   -65666.948    19016.743    -25078.85    20.666107    308997.56 
     250    300.45809   -65590.959    19100.059   -24944.352   -169.95719     309388.1 
     300    299.80103   -65411.765    18912.943   -24999.392   -370.78549     309663.8 
     350    299.31939   -65588.728    18995.879   -25127.958   -337.22586     309801.8 
     400    298.74509    -65536.27    18911.513   -25201.052    249.59086    309816.57 
     450    299.20346   -65538.947    18933.623   -25148.747    181.88744    309791.84 
     500    301.58028   -65584.681    18998.323   -24959.335   -322.68694    309753.01 
     550    301.68915   -65389.537    18868.354   -24886.352     438.3972    309669.39 
     600    302.00344   -65579.139    18946.119    -24975.65    36.731669    309829.49 
     650    298.17522   -65355.069    18742.043   -25230.186   -160.98008    310044.78 
     700    299.86864   -65596.513    18813.574   -25278.661    270.28339    310220.89 
     750    298.91573   -65573.161    18980.068   -25157.151    497.35243    310163.28 
     800    299.55467   -65668.863    19125.376   -25061.723   -238.92475    310063.53 
     850    300.24904   -65572.384    19052.565   -24988.262    100.92913    309891.77 
     900    298.71593   -65443.655    18996.911   -25025.129    315.68488    309706.85 
     950    299.45002   -65611.891    19010.463   -25127.171    253.39909    309621.01 
    1000    299.57291   -65781.602    19096.827   -25201.704    -135.8866    309556.51 
Loop time of 54.9234 on 8 procs for 1000 steps with 32000 atoms

Performance: 3.146 ns/day, 7.628 hours/ns, 18.207 timesteps/s
84.2% CPU use with 8 MPI tasks x 1 OpenMP threads

MPI task timing breakdown:
Section |  min time  |  avg time  |  max time  |%varavg| %total
---------------------------------------------------------------
Pair    | 30.762     | 32.661     | 34.201     |  21.9 | 59.47
Bond    | 3.4169     | 3.4923     | 3.5755     |   2.9 |  6.36
Kspace  | 4.5268     | 6.1284     | 7.9432     |  51.9 | 11.16
Neigh   | 5.7212     | 5.7402     | 5.7654     |   0.6 | 10.45
Comm    | 0.73932    | 0.80227    | 0.85888    |   4.1 |  1.46
Output  | 0.33548    | 0.34027    | 0.37347    |   2.2 |  0.62
Modify  | 4.8472     | 4.9072     | 4.9557     |   1.5 |  8.93
Other   |            | 0.8516     |            |       |  1.55

Nlocal:    4000 ave 4076 max 3948 min
Histogram: 2 1 1 0 0 2 1 0 0 1
Nghost:    16042.6 ave 16099 max 15999 min
Histogram: 2 1 0 2 0 0 0 0 2 1
Neighs:    1.49655e+06 ave 1.53778e+06 max 1.46083e+06 min
Histogram: 2 0 1 0 1 2 0 0 1 1

Total # of neighbors = 11972434
Ave neighs/atom = 374.139
Ave special neighs/atom = 7.43187
Neighbor list builds = 110
Dangerous builds = 0
Total wall time: 0:01:37
