LAMMPS (7 Aug 2019)
  using 1 OpenMP thread(s) per MPI task
Reading data file ...
  orthogonal box = (-27.5 -38.5 -36.3646) to (27.5 38.5 36.3615)
  2 by 2 by 2 MPI processor grid
  reading atoms ...
  32000 atoms
  reading velocities ...
  32000 velocities
  scanning bonds ...
  4 = max bonds/atom
  scanning angles ...
  8 = max angles/atom
  scanning dihedrals ...
  18 = max dihedrals/atom
  scanning impropers ...
  2 = max impropers/atom
  reading bonds ...
  27723 bonds
  reading angles ...
  40467 angles
  reading dihedrals ...
  56829 dihedrals
  reading impropers ...
  1034 impropers
Finding 1-2 1-3 1-4 neighbors ...
  special bond factors lj:   0          0          0         
  special bond factors coul: 0          0          0         
  4 = max # of 1-2 neighbors
  12 = max # of 1-3 neighbors
  24 = max # of 1-4 neighbors
  26 = max # of special neighbors
  special bonds CPU = 0.00743699 secs
  read_data CPU = 0.426363 secs
Replicating atoms ...
  orthogonal box = (-27.5 -38.5 -36.3646) to (27.5 38.5 36.3615)
  2 by 2 by 2 MPI processor grid
  32000 atoms
  27723 bonds
  40467 angles
  56829 dihedrals
  1034 impropers
Finding 1-2 1-3 1-4 neighbors ...
  special bond factors lj:   0          0          0         
  special bond factors coul: 0          0          0         
  4 = max # of 1-2 neighbors
  12 = max # of 1-3 neighbors
  24 = max # of 1-4 neighbors
  26 = max # of special neighbors
  special bonds CPU = 0.00570989 secs
  replicate CPU = 0.0239861 secs
Finding SHAKE clusters ...
  1617 = # of size 2 clusters
  3633 = # of size 3 clusters
  747 = # of size 4 clusters
  4233 = # of frozen angles
  find clusters CPU = 0.0021708 secs
PPPM initialization ...
  using 12-bit tables for long-range coulomb (../kspace.cpp:323)
  G vector (1/distance) = 0.248835
  grid = 25 32 32
  stencil order = 5
  estimated absolute RMS force accuracy = 0.0355478
  estimated relative force accuracy = 0.000107051
  using double precision MKL FFT
  3d grid and FFT values/proc = 7938 3328
Neighbor list info ...
  update every 1 steps, delay 5 steps, check yes
  max neighbors/atom: 2000, page size: 100000
  master list distance cutoff = 12
  ghost atom cutoff = 12
  binsize = 6, bins = 10 13 13
  1 neighbor lists, perpetual/occasional/extra = 1 0 0
  (1) pair lj/charmm/coul/long, perpetual
      attributes: half, newton on
      pair build: half/bin/newton
      stencil: half/bin/3d/newton
      bin: standard
Setting up Verlet run ...
  Unit style    : real
  Current step  : 0
  Time step     : 2
Per MPI rank memory allocation (min/avg/max) = 42.34 | 42.63 | 42.74 Mbytes
Step Temp E_pair E_mol TotEng Press Volume 
       0    299.03967   -65685.704    18884.666   -25356.206   -149.33011    307995.03 
      50    299.82293       -65606    18774.968   -25330.032    237.65707    308031.68 
     100    301.09061   -65648.112    18765.473   -25290.731     6.740596    308134.23 
     150    300.22263   -65665.169    18877.427   -25258.078    251.47374    308515.24 
     200    300.80401   -65666.949    19016.743    -25078.85    20.666919    308997.56 
     250    300.45827   -65590.971    19100.059   -24944.349   -169.95315     309388.1 
     300    299.80101    -65411.78    18912.942   -24999.409   -370.81687     309663.8 
     350    299.31905   -65588.688    18995.881   -25127.941   -337.24516     309801.8 
     400    298.74594   -65536.259    18911.518   -25200.974    249.65879    309816.58 
     450    299.19227    -65537.43    18933.353   -25148.302    181.97476    309792.05 
     500     301.5592   -65584.592    18998.402   -24960.679   -313.87783    309754.13 
     550    301.75289   -65397.817    18863.654    -24894.76    433.13882     309669.3 
     600    301.35673   -65544.778    18950.731   -24983.055    61.282907    309823.79 
     650    299.60461   -65475.353    18761.441   -25228.568   -219.87315    310020.34 
     700    299.24537   -65602.493    18827.832    -25315.08    247.57917     310166.9 
     750    298.55239   -65622.817    19013.652   -25199.278    433.25036    310144.56 
     800    299.93331   -65634.309    19087.257   -25038.136   -137.48869    310120.83 
     850    302.41011   -65731.504    19092.682   -24952.289    111.74099     310017.4 
     900    299.45639   -65508.214    19046.916   -24986.583    86.508593    309909.92 
     950    299.85053   -65563.218    19047.913   -25012.325    86.003438    309859.77 
    1000     299.3282   -65681.017    19139.109   -25076.387      -386.11    309842.68 
Loop time of 71.4367 on 8 procs for 1000 steps with 32000 atoms

Performance: 2.419 ns/day, 9.922 hours/ns, 13.998 timesteps/s
60.9% CPU use with 8 MPI tasks x 1 OpenMP threads

MPI task timing breakdown:
Section |  min time  |  avg time  |  max time  |%varavg| %total
---------------------------------------------------------------
Pair    | 31.7       | 32.445     | 33.302     |   8.7 | 45.42
Bond    | 2.5925     | 2.6614     | 2.7473     |   3.1 |  3.73
Kspace  | 6.0196     | 6.8794     | 7.5369     |  18.8 |  9.63
Neigh   | 8.7844     | 9.4534     | 9.6384     |  10.5 | 13.23
Comm    | 3.2513     | 3.2531     | 3.2587     |   0.1 |  4.55
Output  | 2.6659     | 2.666      | 2.6661     |   0.0 |  3.73
Modify  | 8.2645     | 8.4536     | 9.1182     |  11.1 | 11.83
Other   |            | 5.625      |            |       |  7.87

Nlocal:    4000 ave 4061 max 3928 min
Histogram: 1 0 0 3 0 1 0 1 0 2
Nghost:    16000.9 ave 16047 max 15958 min
Histogram: 2 0 1 0 1 1 0 1 1 1
Neighs:    1.49528e+06 ave 1.53276e+06 max 1.45125e+06 min
Histogram: 1 0 0 2 0 2 1 0 0 2

Total # of neighbors = 11962234
Ave neighs/atom = 373.82
Ave special neighs/atom = 7.43187
Neighbor list builds = 110
Dangerous builds = 0
Total wall time: 0:01:34
